/*--------------------------------*- C++ -*----------------------------------*\
| =========                 |                                                 |
| \\      /  F ield         | OpenFOAM: The Open Source CFD Toolbox           |
|  \\    /   O peration     | Version:  2412                                  |
|   \\  /    A nd           | Website:  www.openfoam.com                      |
|    \\/     M anipulation  |                                                 |
\*---------------------------------------------------------------------------*/
FoamFile
{
    version     2.0;
    format      ascii;
    arch        "LSB;label=32;scalar=64";
    class       volVectorField;
    location    "0";
    object      U;
}
// * * * * * * * * * * * * * * * * * * * * * * * * * * * * * * * * * * * * * //

dimensions      [0 1 -1 0 0 0 0];

internalField   uniform (0 0 0);

boundaryField
{
    airfoil
    {
        type            noSlip;
    }
    farfield
    {
        type            timeVaryingMappedFixedValue;
        fieldTable      U;
        offset          constant (0 0 0);
        value           nonuniform List<vector> 
1000
(
(25.787 0.262316 -0.597827)
(25.787 0.262315 -0.597822)
(25.7848 0.265938 -0.621121)
(25.7848 0.265935 -0.621083)
(25.7826 0.26954 -0.666987)
(25.7826 0.269535 -0.668578)
(25.7803 0.273153 -0.703252)
(25.7803 0.27315 -0.703227)
(25.7778 0.276848 -0.685451)
(25.7778 0.276845 -0.685465)
(25.7753 0.280546 -0.66753)
(25.7753 0.280546 -0.667535)
(25.7727 0.284239 -0.649628)
(25.7727 0.284238 -0.649634)
(25.7702 0.287923 -0.631695)
(25.7702 0.287919 -0.631737)
(25.7677 0.291613 -0.613694)
(25.7677 0.291606 -0.613755)
(25.7652 0.295303 -0.595654)
(25.7652 0.295301 -0.595663)
(25.7627 0.298984 -0.580364)
(25.7627 0.298981 -0.580373)
(25.7601 0.302669 -0.570972)
(25.7601 0.302668 -0.570975)
(25.7576 0.306344 -0.561403)
(25.7576 0.306339 -0.561466)
(25.7552 0.310019 -0.551753)
(25.7552 0.310017 -0.551736)
(25.7527 0.313712 -0.541819)
(25.7527 0.313705 -0.541838)
(25.7502 0.317438 -0.531643)
(25.7502 0.317436 -0.531646)
(25.7477 0.321162 -0.52134)
(25.7477 0.321157 -0.521354)
(25.7452 0.324895 -0.51088)
(25.7452 0.324892 -0.510878)
(25.7427 0.328614 -0.500398)
(25.7427 0.328612 -0.500393)
(25.74 0.332299 -0.505277)
(25.7403 0.332343 -0.508352)
(25.7371 0.335867 -0.506253)
(25.7373 0.335964 -0.509195)
(25.7343 0.339485 -0.509173)
(25.7343 0.339481 -0.509173)
(25.7313 0.342997 -0.509355)
(25.7313 0.34299 -0.509281)
(25.7283 0.346491 -0.509438)
(25.7283 0.346494 -0.509438)
(25.7253 0.350006 -0.509725)
(25.7253 0.350006 -0.509736)
(25.7223 0.353521 -0.510088)
(25.7223 0.353517 -0.510087)
(25.7193 0.357029 -0.510607)
(25.7193 0.357023 -0.51056)
(25.7163 0.360534 -0.511123)
(25.7163 0.360533 -0.511108)
(25.7133 0.364091 -0.511739)
(25.7133 0.36409 -0.511737)
(25.7102 0.367768 -0.516675)
(25.7102 0.367766 -0.517369)
(25.707 0.371545 -0.528809)
(25.707 0.371542 -0.528802)
(25.7037 0.375406 -0.541342)
(25.7037 0.375405 -0.541339)
(25.7005 0.379316 -0.55414)
(25.7005 0.379315 -0.554137)
(25.6972 0.383233 -0.567052)
(25.6972 0.383229 -0.567049)
(25.6937 0.387138 -0.527362)
(25.6939 0.387113 -0.573315)
(25.6905 0.390947 -0.550592)
(25.6905 0.390947 -0.550589)
(25.687 0.394699 -0.495618)
(25.687 0.394701 -0.495593)
(25.6835 0.398257 -0.478325)
(25.6836 0.398324 -0.44398)
(25.6802 0.401614 -0.477357)
(25.6803 0.401681 -0.443476)
(25.6771 0.404798 -0.462893)
(25.6772 0.404803 -0.45846)
(25.6742 0.407668 -0.484627)
(25.6742 0.407667 -0.484621)
(25.6713 0.410481 -0.510321)
(25.6713 0.410478 -0.51031)
(25.6672 0.414475 -0.546745)
(25.6672 0.414464 -0.545106)
(25.6628 0.41872 -0.569414)
(25.6628 0.418721 -0.569419)
(25.6596 0.421695 -0.568475)
(25.6596 0.421693 -0.568475)
(25.6569 0.424177 -0.567985)
(25.6569 0.424163 -0.567986)
(25.6541 0.426772 -0.567305)
(25.6541 0.426774 -0.567338)
(25.651 0.429655 -0.567141)
(25.651 0.429656 -0.566453)
(25.6478 0.432543 -0.570538)
(25.6478 0.432541 -0.568264)
(25.6448 0.435336 -0.576708)
(25.6448 0.435337 -0.576709)
(25.6418 0.438098 -0.585593)
(25.6418 0.438097 -0.585588)
(25.6387 0.440886 -0.594568)
(25.6387 0.440882 -0.594552)
(25.6353 0.443748 -0.559755)
(25.6353 0.443745 -0.560427)
(25.6316 0.446771 -0.52182)
(25.6316 0.446769 -0.521857)
(25.6277 0.450004 -0.479552)
(25.6277 0.450004 -0.479547)
(25.6234 0.453549 -0.433356)
(25.6234 0.453549 -0.433348)
(25.6196 0.456708 -0.392284)
(25.6196 0.456706 -0.392318)
(25.6164 0.459344 -0.36457)
(25.6164 0.459332 -0.367745)
(25.6131 0.462078 -0.33548)
(25.6131 0.462051 -0.34409)
(25.6096 0.464852 -0.329478)
(25.6096 0.464851 -0.329475)
(25.6059 0.467657 -0.346243)
(25.6059 0.467655 -0.346237)
(25.6021 0.470533 -0.363441)
(25.6021 0.470531 -0.363427)
(25.5982 0.473477 -0.381035)
(25.5982 0.473476 -0.38103)
(25.5943 0.476478 -0.398745)
(25.5943 0.476476 -0.398939)
(25.5903 0.479508 -0.416586)
(25.5903 0.479504 -0.416693)
(25.5863 0.482543 -0.433977)
(25.5863 0.482544 -0.43398)
(25.5823 0.485591 -0.451293)
(25.5823 0.485587 -0.451273)
(25.5782 0.488604 -0.4614)
(25.5782 0.488592 -0.456803)
(25.5741 0.491538 -0.452032)
(25.5741 0.491534 -0.45204)
(25.5699 0.494397 -0.443959)
(25.5699 0.494391 -0.443347)
(25.5658 0.49711 -0.423365)
(25.5658 0.497121 -0.425019)
(25.5616 0.499812 -0.397946)
(25.5616 0.49981 -0.397969)
(25.5574 0.502527 -0.367862)
(25.5574 0.502527 -0.367866)
(25.5532 0.505275 -0.337479)
(25.5532 0.505274 -0.337482)
(25.5489 0.508036 -0.306967)
(25.5489 0.508034 -0.306991)
(25.5446 0.510807 -0.2764)
(25.5446 0.510805 -0.276428)
(25.5403 0.513561 -0.246049)
(25.5403 0.513559 -0.24607)
(25.5361 0.516304 -0.215854)
(25.5361 0.516304 -0.215843)
(25.5319 0.518995 -0.191371)
(25.5319 0.518994 -0.191371)
(25.5277 0.521464 -0.194902)
(25.5277 0.521462 -0.194901)
(25.5236 0.523877 -0.198352)
(25.5236 0.523879 -0.198353)
(25.5196 0.526244 -0.201731)
(25.5196 0.526244 -0.201731)
(25.5157 0.528527 -0.204988)
(25.5157 0.528526 -0.204987)
(25.5119 0.530711 -0.206453)
(25.5119 0.53071 -0.206452)
(25.5075 0.532928 -0.188556)
(25.5075 0.532927 -0.188563)
(25.5026 0.535439 -0.168266)
(25.5026 0.535437 -0.168284)
(25.4977 0.537918 -0.148229)
(25.4977 0.537917 -0.148232)
(25.4931 0.540268 -0.129222)
(25.4931 0.540267 -0.12923)
(25.4887 0.542509 -0.111981)
(25.4887 0.542509 -0.114632)
(25.4845 0.544684 -0.106103)
(25.4845 0.544679 -0.106112)
(25.4804 0.546824 -0.101364)
(25.4804 0.54682 -0.101369)
(25.4762 0.548942 -0.0966733)
(25.4762 0.548945 -0.0966655)
(25.4721 0.551091 -0.0919256)
(25.4721 0.55109 -0.0919263)
(25.4678 0.553298 -0.0870663)
(25.4678 0.553296 -0.0870694)
(25.4638 0.555336 -0.0826305)
(25.4638 0.555323 -0.0826571)
(25.4605 0.557011 -0.0790519)
(25.4605 0.55701 -0.0790468)
(25.4567 0.558936 -0.0748943)
(25.4567 0.558934 -0.0748979)
(25.4508 0.561992 -0.0680548)
(25.4508 0.561991 -0.068057)
(25.4454 0.564732 -0.0608763)
(25.4454 0.564707 -0.0601583)
(25.4419 0.566313 -0.0501619)
(25.4419 0.566359 -0.050174)
(25.4377 0.567896 -0.0372052)
(25.4377 0.567895 -0.0372112)
(25.4331 0.569698 -0.0256916)
(25.4331 0.569698 -0.0256905)
(25.4282 0.571629 -0.0133651)
(25.4282 0.571629 -0.0133635)
(25.4231 0.57366 -0.000414362)
(25.4231 0.573656 -0.000438707)
(25.4178 0.57576 0.0129548)
(25.4178 0.575759 0.0129505)
(25.4124 0.577916 0.0266604)
(25.4124 0.577917 0.0266666)
(25.407 0.580098 0.0404914)
(25.407 0.580099 0.040501)
(25.4015 0.582274 0.0542479)
(25.4015 0.582276 0.0542592)
(25.3961 0.584434 0.0678574)
(25.3961 0.584432 0.0678466)
(25.3909 0.586544 0.0663405)
(25.3909 0.58654 0.0665052)
(25.3858 0.588587 0.0643684)
(25.3858 0.588586 0.0643684)
(25.3808 0.59059 0.0621685)
(25.3808 0.590589 0.0621698)
(25.3759 0.592592 0.059963)
(25.3759 0.592591 0.0599634)
(25.371 0.5946 0.0577461)
(25.371 0.594589 0.0580789)
(25.3659 0.596386 0.0619093)
(25.3659 0.596404 0.0612671)
(25.3607 0.59815 0.0667848)
(25.3607 0.59815 0.066783)
(25.3555 0.599879 0.0725923)
(25.3555 0.599878 0.0725891)
(25.3503 0.601607 0.0783901)
(25.3503 0.601606 0.0783867)
(25.3451 0.603209 0.0932936)
(25.3451 0.603251 0.0902597)
(25.3399 0.604708 0.115642)
(25.3399 0.604728 0.113914)
(25.3347 0.606213 0.137631)
(25.3347 0.606214 0.137631)
(25.3296 0.607701 0.161345)
(25.3296 0.6077 0.161326)
(25.3244 0.609181 0.184901)
(25.3244 0.609181 0.184894)
(25.3192 0.610684 0.208727)
(25.3192 0.610684 0.208705)
(25.3138 0.612221 0.233015)
(25.3138 0.612221 0.233004)
(25.3083 0.613821 0.258207)
(25.3083 0.613818 0.258178)
(25.3027 0.615444 0.283163)
(25.3027 0.615416 0.28204)
(25.2971 0.616943 0.300044)
(25.2971 0.616963 0.30287)
(25.2914 0.618342 0.304557)
(25.2914 0.618342 0.304558)
(25.2857 0.61948 0.295308)
(25.2857 0.61948 0.295308)
(25.28 0.620598 0.286201)
(25.28 0.620598 0.286207)
(25.2745 0.621679 0.277415)
(25.2745 0.621679 0.277413)
(25.2692 0.622721 0.268957)
(25.2692 0.622722 0.268956)
(25.2643 0.623708 0.260968)
(25.2643 0.623707 0.260972)
(25.2597 0.624625 0.253554)
(25.2597 0.624623 0.253567)
(25.2555 0.625465 0.246793)
(25.2555 0.625463 0.246787)
(25.2497 0.626625 0.237473)
(25.2497 0.626625 0.237473)
(25.243 0.627891 0.243344)
(25.243 0.627891 0.243343)
(25.238 0.6287 0.279923)
(25.238 0.628699 0.279863)
(25.2338 0.629379 0.309939)
(25.2338 0.629378 0.309887)
(25.2295 0.630078 0.341053)
(25.2295 0.630079 0.341048)
(25.2247 0.630865 0.376485)
(25.2247 0.630865 0.37647)
(25.2196 0.631666 0.413035)
(25.2196 0.631666 0.413007)
(25.2147 0.63226 0.432703)
(25.2147 0.632246 0.431493)
(25.2096 0.632704 0.438978)
(25.2096 0.632703 0.438975)
(25.2044 0.633167 0.445444)
(25.2044 0.633168 0.445432)
(25.1989 0.633672 0.452259)
(25.1989 0.633671 0.452256)
(25.1927 0.634241 0.458793)
(25.1927 0.634242 0.457072)
(25.1867 0.634807 0.450039)
(25.1867 0.634806 0.450053)
(25.1816 0.635299 0.441711)
(25.1816 0.635299 0.441719)
(25.1766 0.635779 0.433638)
(25.1766 0.635779 0.433649)
(25.1713 0.636286 0.42511)
(25.1713 0.636286 0.425112)
(25.1659 0.636816 0.416215)
(25.1659 0.636814 0.416215)
(25.1603 0.637364 0.407032)
(25.1603 0.637365 0.407021)
(25.1545 0.637928 0.397622)
(25.1545 0.637925 0.397636)
(25.1487 0.638502 0.388049)
(25.1487 0.638502 0.388055)
(25.1428 0.639082 0.378406)
(25.1428 0.639082 0.378411)
(25.1369 0.639493 0.399312)
(25.1369 0.639492 0.399324)
(25.1312 0.63954 0.430889)
(25.1312 0.639537 0.43083)
(25.1256 0.639587 0.4619)
(25.1256 0.639587 0.461887)
(25.12 0.639646 0.492553)
(25.12 0.639645 0.492518)
(25.1145 0.639705 0.523031)
(25.1145 0.639705 0.523005)
(25.109 0.639771 0.55364)
(25.109 0.639771 0.553626)
(25.1035 0.639844 0.584278)
(25.1035 0.639843 0.584246)
(25.098 0.639922 0.614812)
(25.098 0.639917 0.61479)
(25.0925 0.639998 0.645325)
(25.0925 0.639998 0.64536)
(25.0871 0.640084 0.676081)
(25.0871 0.640084 0.676067)
(25.0816 0.640175 0.692722)
(25.0816 0.640175 0.692714)
(25.0761 0.640272 0.7089)
(25.0761 0.64027 0.708891)
(25.0706 0.640373 0.725158)
(25.0706 0.640371 0.725149)
(25.0652 0.640481 0.741506)
(25.0652 0.640481 0.741531)
(25.0596 0.640217 0.7085)
(25.0596 0.640254 0.713728)
(25.0539 0.639949 0.675036)
(25.0539 0.639949 0.675052)
(25.0481 0.639641 0.635077)
(25.0481 0.639641 0.635164)
(25.0421 0.639334 0.594068)
(25.0421 0.639332 0.594041)
(25.0361 0.638856 0.628153)
(25.036 0.639025 0.552409)
(25.03 0.638375 0.662315)
(25.0299 0.638516 0.599381)
(25.0239 0.637988 0.655727)
(25.0239 0.63799 0.655489)
(25.0181 0.637434 0.729219)
(25.0181 0.637435 0.729165)
(25.0125 0.636904 0.800252)
(25.0125 0.636904 0.800224)
(25.0071 0.6364 0.867703)
(25.0071 0.6364 0.867706)
(25.0021 0.635931 0.930074)
(25.0021 0.635932 0.930026)
(24.9976 0.635506 0.987002)
(24.9976 0.635506 0.986993)
(24.9923 0.635015 1.05277)
(24.9923 0.635007 1.051)
(24.9858 0.6342 1.09147)
(24.9858 0.634201 1.09147)
(24.9801 0.633264 1.08004)
(24.9801 0.633266 1.07929)
(24.9757 0.632569 1.06125)
(24.9757 0.632568 1.06124)
(24.9713 0.631882 1.04229)
(24.9713 0.631881 1.04227)
(24.966 0.631027 1.01953)
(24.966 0.631028 1.01952)
(24.9602 0.630083 0.989352)
(24.9603 0.630075 0.983973)
(24.9548 0.629135 0.940434)
(24.9548 0.629134 0.940381)
(24.9492 0.62817 0.884188)
(24.9493 0.628168 0.884196)
(24.9433 0.627136 0.823978)
(24.9433 0.627138 0.823993)
(24.9367 0.62601 0.75688)
(24.9367 0.626011 0.756891)
(24.9304 0.624941 0.702082)
(24.9304 0.624928 0.710492)
(24.925 0.623878 0.739959)
(24.925 0.623878 0.739948)
(24.9196 0.622726 0.82188)
(24.9196 0.622692 0.814199)
(24.914 0.621243 0.847551)
(24.914 0.621247 0.84833)
(24.9083 0.619501 0.827661)
(24.9083 0.619503 0.827659)
(24.9023 0.617721 0.806409)
(24.9023 0.617721 0.806413)
(24.8963 0.615924 0.786147)
(24.8963 0.615933 0.788841)
(24.8901 0.614254 0.803859)
(24.8902 0.614229 0.796234)
(24.8839 0.612684 0.846103)
(24.8839 0.612686 0.845587)
(24.8778 0.611201 0.896348)
(24.8778 0.611204 0.896253)
(24.8717 0.609754 0.935138)
(24.8717 0.609754 0.935117)
(24.8657 0.608331 0.973961)
(24.8657 0.608332 0.973958)
(24.8597 0.60691 1.01276)
(24.8597 0.60691 1.01276)
(24.8537 0.605502 1.05183)
(24.8537 0.605498 1.05091)
(24.8478 0.603865 1.04161)
(24.8477 0.603952 1.05991)
(24.8419 0.602095 1.00318)
(24.8419 0.602095 1.0032)
(24.836 0.600156 0.926514)
(24.836 0.600156 0.926533)
(24.8302 0.598227 0.849928)
(24.8302 0.598227 0.849931)
(24.8245 0.59616 0.902378)
(24.8245 0.596155 0.908419)
(24.8189 0.594037 1.01085)
(24.8189 0.594037 1.01078)
(24.8133 0.591904 1.12)
(24.8133 0.591906 1.11992)
(24.8076 0.589774 1.22945)
(24.8076 0.589772 1.22941)
(24.8019 0.587653 1.339)
(24.802 0.587653 1.33885)
(24.7963 0.585541 1.4482)
(24.7963 0.585542 1.44815)
(24.7907 0.583373 1.53328)
(24.7907 0.583382 1.53651)
(24.7851 0.581213 1.6194)
(24.7851 0.581243 1.63)
(24.7795 0.579053 1.70287)
(24.7795 0.579054 1.70285)
(24.7742 0.576519 1.6562)
(24.7742 0.576517 1.65617)
(24.769 0.574028 1.56941)
(24.769 0.574029 1.56943)
(24.7637 0.571536 1.47592)
(24.7637 0.571546 1.47625)
(24.7583 0.568968 1.3792)
(24.7583 0.568971 1.37933)
(24.7526 0.566275 1.27713)
(24.7526 0.566282 1.27759)
(24.7467 0.563519 1.17268)
(24.7467 0.56352 1.17273)
(24.7408 0.560772 1.06809)
(24.7408 0.560769 1.06807)
(24.7351 0.55808 0.965503)
(24.7351 0.558082 0.965597)
(24.7298 0.555366 1.06962)
(24.7298 0.55537 1.06799)
(24.7249 0.552834 1.18199)
(24.7249 0.552836 1.18195)
(24.7207 0.550384 1.20523)
(24.7207 0.550368 1.19871)
(24.7172 0.54816 1.17318)
(24.7172 0.54816 1.17318)
(24.7122 0.544989 1.12405)
(24.7122 0.544988 1.12403)
(24.7075 0.54207 1.07673)
(24.7075 0.542071 1.07675)
(24.703 0.539341 1.03104)
(24.703 0.539342 1.03104)
(24.6962 0.535523 1.12163)
(24.6962 0.535525 1.12142)
(24.6894 0.53173 1.21232)
(24.6894 0.531732 1.21227)
(24.6824 0.527857 1.29804)
(24.6824 0.527862 1.29793)
(24.675 0.523811 1.38933)
(24.675 0.523815 1.38924)
(24.6677 0.519876 1.48006)
(24.6677 0.519875 1.48008)
(24.6613 0.515637 1.34917)
(24.6613 0.515639 1.35011)
(24.6547 0.511322 1.21591)
(24.6547 0.51132 1.21592)
(24.648 0.506845 1.11415)
(24.648 0.506846 1.11408)
(24.6416 0.502187 1.30396)
(24.6416 0.502188 1.3039)
(24.6351 0.497512 1.49511)
(24.6351 0.497513 1.49499)
(24.6287 0.492908 1.68412)
(24.6287 0.492908 1.68408)
(24.6223 0.488423 1.8649)
(24.6223 0.488423 1.8653)
(24.6162 0.483942 2.00611)
(24.6162 0.483914 1.98874)
(24.6103 0.479169 1.9728)
(24.6103 0.479174 1.97291)
(24.6046 0.474323 1.87373)
(24.6046 0.474323 1.87376)
(24.5988 0.469457 1.77192)
(24.5988 0.469461 1.772)
(24.5929 0.464604 1.66895)
(24.5929 0.464603 1.66893)
(24.5871 0.45975 1.56441)
(24.5871 0.459747 1.56433)
(24.5814 0.455075 1.4148)
(24.5814 0.45507 1.41462)
(24.5757 0.450492 1.25091)
(24.5757 0.450492 1.25091)
(24.5703 0.445847 1.2606)
(24.5703 0.445847 1.2606)
(24.5654 0.440832 1.23472)
(24.5654 0.440834 1.23473)
(24.56 0.435677 1.36722)
(24.56 0.435681 1.36725)
(24.5546 0.430527 1.50145)
(24.5546 0.430529 1.5014)
(24.5491 0.425387 1.6373)
(24.5491 0.425386 1.63728)
(24.5437 0.420358 1.77195)
(24.5437 0.420357 1.77193)
(24.5384 0.415434 1.90362)
(24.5384 0.41543 1.90375)
(24.5331 0.410501 2.03011)
(24.5331 0.410501 2.03011)
(24.5278 0.405468 2.07317)
(24.5278 0.405468 2.07317)
(24.523 0.400137 1.89611)
(24.523 0.40014 1.89619)
(24.5181 0.394738 1.71622)
(24.5181 0.394734 1.71607)
(24.513 0.389262 1.52938)
(24.513 0.389262 1.52938)
(24.508 0.383915 1.37232)
(24.5081 0.383918 1.39041)
(24.5034 0.378691 1.44547)
(24.5034 0.378691 1.44544)
(24.4988 0.373346 1.64767)
(24.4988 0.373344 1.64764)
(24.494 0.367918 1.85335)
(24.494 0.367917 1.85337)
(24.4898 0.362293 1.76563)
(24.4898 0.362292 1.76561)
(24.4857 0.356713 1.62311)
(24.4857 0.356712 1.62312)
(24.4818 0.35138 1.48395)
(24.4818 0.35138 1.48395)
(24.478 0.346307 1.37635)
(24.478 0.346295 1.38858)
(24.4737 0.340865 1.45519)
(24.4737 0.340865 1.45519)
(24.4687 0.334874 1.62253)
(24.4687 0.334874 1.62254)
(24.4638 0.329075 1.78554)
(24.4638 0.329072 1.77887)
(24.4596 0.323669 1.79037)
(24.4596 0.323671 1.79037)
(24.4559 0.318327 1.61562)
(24.4559 0.318328 1.61565)
(24.4521 0.31289 1.43928)
(24.4521 0.312893 1.44343)
(24.4457 0.303026 1.67846)
(24.4457 0.303027 1.67837)
(24.435 0.287135 2.26379)
(24.435 0.287148 2.26365)
(24.4252 0.270242 1.89059)
(24.4252 0.270242 1.89058)
(24.4156 0.253624 1.45157)
(24.4156 0.253626 1.4516)
(24.4051 0.235231 1.47326)
(24.4051 0.235234 1.47321)
(24.3977 0.219284 1.97092)
(24.3977 0.219288 1.97077)
(24.3904 0.204334 2.50354)
(24.3904 0.204336 2.50358)
(24.384 0.190587 2.21529)
(24.384 0.190587 2.21527)
(24.3783 0.178909 1.77217)
(24.3783 0.178908 1.77216)
(24.3728 0.167509 1.57822)
(24.3728 0.167509 1.57823)
(24.3603 0.139049 2.03729)
(24.3603 0.139046 2.03733)
(24.3427 0.0976457 1.51811)
(24.3427 0.097652 1.51819)
(24.3264 0.0532652 2.22071)
(24.3264 0.0532633 2.22068)
(24.3138 0.00831823 2.40017)
(24.3138 0.00831547 2.40013)
(24.3043 -0.0334887 1.79077)
(24.3043 -0.0334899 1.7908)
(24.2986 -0.0709726 2.93324)
(24.2986 -0.0709772 2.93305)
(24.2948 -0.10298 1.59654)
(24.2948 -0.102985 1.5965)
(24.2925 -0.138241 2.31957)
(24.2925 -0.138243 2.31956)
(24.2909 -0.1754 1.91791)
(24.2909 -0.175402 1.91789)
(24.2918 -0.21124 2.09142)
(24.2918 -0.211246 2.09132)
(24.2933 -0.240856 1.64555)
(24.2933 -0.240856 1.64553)
(24.2966 -0.270028 2.22898)
(24.2966 -0.27003 2.22894)
(24.3005 -0.298107 1.52876)
(24.3005 -0.298107 1.52876)
(24.3081 -0.328076 2.70431)
(24.3081 -0.328078 2.70396)
(24.3165 -0.355468 2.06191)
(24.3165 -0.355468 2.06191)
(24.3254 -0.383562 1.67741)
(24.3254 -0.383563 1.67739)
(24.3356 -0.409421 1.66074)
(24.3356 -0.409423 1.66073)
(24.3443 -0.433284 1.624)
(24.3443 -0.433286 1.62404)
(24.3554 -0.455535 2.13728)
(24.3554 -0.455537 2.13732)
(24.3656 -0.478044 2.53984)
(24.3656 -0.478044 2.53959)
(24.3748 -0.497877 1.72371)
(24.3748 -0.497879 1.72361)
(24.3842 -0.516405 1.68978)
(24.3842 -0.516405 1.68978)
(24.3941 -0.534159 2.37416)
(24.3941 -0.534159 2.37415)
(24.4033 -0.549866 2.28797)
(24.4033 -0.549859 2.28788)
(24.4116 -0.566211 1.74297)
(24.4116 -0.566214 1.74292)
(24.42 -0.582225 1.43751)
(24.42 -0.582228 1.4376)
(24.4298 -0.597359 1.96276)
(24.4298 -0.597361 1.96267)
(24.439 -0.610594 1.8768)
(24.439 -0.610597 1.87679)
(24.4476 -0.62332 1.81754)
(24.4476 -0.623322 1.81749)
(24.4557 -0.635665 1.73758)
(24.4557 -0.635669 1.73755)
(24.4637 -0.648713 1.26687)
(24.4637 -0.648713 1.26688)
(24.4731 -0.660422 1.57197)
(24.4731 -0.660424 1.57198)
(24.482 -0.670586 1.59354)
(24.482 -0.670588 1.59353)
(24.4904 -0.680036 1.54305)
(24.4904 -0.680052 1.54292)
(24.4983 -0.68919 1.50531)
(24.4983 -0.689191 1.50532)
(24.5058 -0.697833 1.48165)
(24.5058 -0.697839 1.48163)
(24.513 -0.706064 1.45907)
(24.513 -0.706076 1.45922)
(24.5201 -0.714196 1.33301)
(24.52 -0.714211 1.33217)
(24.5274 -0.722178 1.2282)
(24.5274 -0.722179 1.22829)
(24.5352 -0.728905 1.35109)
(24.5352 -0.728907 1.35107)
(24.5424 -0.734761 1.31363)
(24.5424 -0.734764 1.31361)
(24.5492 -0.740333 1.27749)
(24.5492 -0.740335 1.27748)
(24.5557 -0.745595 1.24284)
(24.5557 -0.745598 1.24277)
(24.5618 -0.750602 1.21159)
(24.5618 -0.750605 1.21161)
(24.5677 -0.75533 1.19545)
(24.5677 -0.755333 1.19547)
(24.5733 -0.759805 1.17972)
(24.5733 -0.759804 1.17972)
(24.5786 -0.764041 1.1642)
(24.5786 -0.764043 1.16419)
(24.5837 -0.768046 1.14894)
(24.5837 -0.768049 1.14896)
(24.5885 -0.771834 1.13391)
(24.5885 -0.771837 1.13393)
(24.5932 -0.775419 1.11922)
(24.5932 -0.775423 1.11921)
(24.5977 -0.778967 1.04586)
(24.5977 -0.778969 1.04595)
(24.6026 -0.781699 1.07023)
(24.6026 -0.78171 1.07263)
(24.6072 -0.784132 1.04775)
(24.6072 -0.784133 1.04774)
(24.6115 -0.786432 1.02381)
(24.6115 -0.786435 1.02383)
(24.6157 -0.788596 1.00051)
(24.6157 -0.7886 1.00053)
(24.6196 -0.790658 0.984556)
(24.6196 -0.790661 0.984536)
(24.623 -0.79323 0.973094)
(24.623 -0.793232 0.973087)
(24.626 -0.796519 0.985394)
(24.626 -0.796522 0.985415)
(24.6292 -0.799972 0.997842)
(24.6292 -0.799976 0.997857)
(24.6326 -0.803657 1.01098)
(24.6326 -0.80366 1.01101)
(24.6362 -0.80753 1.02807)
(24.6362 -0.807533 1.02809)
(24.6401 -0.811623 1.05508)
(24.6401 -0.811625 1.05509)
(24.6442 -0.81597 1.08336)
(24.6442 -0.815973 1.08339)
(24.6485 -0.82055 1.11287)
(24.6485 -0.820553 1.11289)
(24.6532 -0.825397 1.14365)
(24.6532 -0.8254 1.14366)
(24.6582 -0.830555 1.1586)
(24.6582 -0.830555 1.16024)
(24.6639 -0.836227 1.07451)
(24.6639 -0.83623 1.07524)
(24.6702 -0.84215 0.981315)
(24.6702 -0.842156 0.981259)
(24.6778 -0.847614 1.13459)
(24.6778 -0.847616 1.13468)
(24.6855 -0.853216 1.22295)
(24.6855 -0.853218 1.22299)
(24.6934 -0.858969 1.2337)
(24.6934 -0.858971 1.2337)
(24.7017 -0.865043 1.24453)
(24.7017 -0.865048 1.24455)
(24.7106 -0.87147 1.26826)
(24.7106 -0.871472 1.26826)
(24.72 -0.878284 1.30924)
(24.72 -0.878286 1.3092)
(24.7305 -0.885765 1.17732)
(24.7305 -0.885769 1.17819)
(24.742 -0.893942 0.918763)
(24.742 -0.893944 0.918756)
(24.7551 -0.901159 0.993287)
(24.7551 -0.90116 0.993294)
(24.7692 -0.908202 1.22227)
(24.7692 -0.908204 1.22233)
(24.7835 -0.915584 1.34763)
(24.7835 -0.915585 1.34762)
(24.7983 -0.923449 1.31075)
(24.7983 -0.92345 1.31074)
(24.8148 -0.932298 0.992068)
(24.8148 -0.9323 0.992022)
(24.8324 -0.941222 0.764824)
(24.8324 -0.941224 0.764769)
(24.8517 -0.948348 1.02355)
(24.8517 -0.948349 1.02358)
(24.8723 -0.956222 1.19375)
(24.8723 -0.956224 1.19375)
(24.8941 -0.965291 0.939949)
(24.8941 -0.965292 0.939893)
(24.9162 -0.975127 0.600552)
(24.9162 -0.975128 0.600551)
(24.9401 -0.982431 0.810935)
(24.9401 -0.982432 0.810917)
(24.9665 -0.991191 0.667112)
(24.9665 -0.991192 0.667096)
(24.994 -1.00134 0.558407)
(24.994 -1.00134 0.558392)
(25.0237 -1.01148 0.44131)
(25.0237 -1.01148 0.441317)
(25.0572 -1.02343 0.50093)
(25.0572 -1.02343 0.500937)
(25.0945 -1.03763 0.334696)
(25.0945 -1.03763 0.334683)
(25.1338 -1.04827 0.52978)
(25.1338 -1.04827 0.529757)
(25.1771 -1.06186 0.286783)
(25.1771 -1.06186 0.286776)
(25.2219 -1.07318 0.164437)
(25.2219 -1.07318 0.164428)
(25.2708 -1.08548 0.137181)
(25.2708 -1.08548 0.137178)
(25.3225 -1.09472 0.0443817)
(25.3225 -1.09472 0.044374)
(25.3755 -1.10422 -0.0468882)
(25.3755 -1.10422 -0.0468961)
(25.4272 -1.10996 -0.145464)
(25.4272 -1.10996 -0.14547)
(25.4946 -1.11719 -0.23704)
(25.4946 -1.11719 -0.237039)
(25.57 -1.12287 -0.417804)
(25.57 -1.12287 -0.417836)
(25.6422 -1.13052 -0.514062)
(25.6422 -1.13052 -0.514087)
(25.7173 -1.13776 -0.544779)
(25.7173 -1.13776 -0.544787)
(25.8007 -1.14189 -0.712738)
(25.8007 -1.14189 -0.712746)
(25.9008 -1.14408 -1.14417)
(25.9008 -1.14408 -1.14418)
(26.0006 -1.14267 -1.06509)
(26.0006 -1.14267 -1.0651)
(26.1021 -1.13937 -1.06501)
(26.1021 -1.13937 -1.06503)
(26.1718 -1.13457 -1.52557)
(26.1718 -1.13457 -1.52562)
(26.197 -1.13322 -1.87282)
(26.197 -1.13322 -1.87281)
(26.2228 -1.13099 -1.74887)
(26.2228 -1.13099 -1.74879)
(26.2503 -1.12881 -1.40022)
(26.2503 -1.12881 -1.40021)
(26.2768 -1.12705 -1.36466)
(26.2768 -1.12705 -1.36468)
(26.3032 -1.12438 -1.46913)
(26.3032 -1.12439 -1.46914)
(26.3304 -1.12129 -1.45361)
(26.3304 -1.12129 -1.45368)
(26.356 -1.119 -1.80876)
(26.356 -1.119 -1.8088)
(26.3795 -1.11683 -2.03635)
(26.3795 -1.11683 -2.03641)
(26.3999 -1.11392 -1.7242)
(26.3999 -1.11392 -1.72414)
(26.4217 -1.11094 -1.40199)
(26.4217 -1.11094 -1.39753)
(26.4438 -1.10765 -1.83569)
(26.4438 -1.10765 -1.83578)
(26.4606 -1.10563 -2.17331)
(26.4606 -1.10563 -2.17346)
(26.4726 -1.1039 -2.24725)
(26.4726 -1.1039 -2.24723)
(26.4814 -1.10228 -2.1664)
(26.4814 -1.10228 -2.16639)
(26.49 -1.10068 -2.08699)
(26.49 -1.10068 -2.08449)
(26.4986 -1.09888 -1.89675)
(26.4986 -1.09888 -1.89675)
(26.5074 -1.09746 -1.90656)
(26.5074 -1.09746 -1.90657)
(26.5168 -1.0958 -1.80011)
(26.5168 -1.0958 -1.80012)
(26.527 -1.09408 -1.68762)
(26.527 -1.09408 -1.68758)
(26.5369 -1.09249 -1.58068)
(26.5369 -1.09249 -1.5807)
(26.5456 -1.09144 -1.67411)
(26.5456 -1.09144 -1.67415)
(26.5545 -1.09037 -1.75383)
(26.5545 -1.09038 -1.75872)
(26.5641 -1.08905 -1.73941)
(26.5641 -1.08902 -1.72336)
(26.574 -1.08743 -1.63768)
(26.574 -1.08745 -1.61393)
(26.5843 -1.08542 -1.8093)
(26.5843 -1.08542 -1.81201)
(26.5944 -1.08339 -2.03826)
(26.5944 -1.08339 -2.03839)
(26.6043 -1.08143 -2.27059)
(26.6043 -1.08143 -2.27067)
(26.6137 -1.07957 -2.49078)
(26.6137 -1.07957 -2.49093)
(26.6223 -1.07787 -2.6933)
(26.6223 -1.07787 -2.69337)
(26.6299 -1.07637 -2.87317)
(26.6299 -1.07637 -2.87328)
(26.6399 -1.07442 -3.03226)
(26.6399 -1.07442 -3.03223)
(26.651 -1.07231 -3.18911)
(26.651 -1.07231 -3.18917)
(26.6591 -1.07071 -3.17741)
(26.6591 -1.07071 -3.17721)
(26.6661 -1.06911 -3.03175)
(26.6661 -1.06911 -3.03169)
(26.6725 -1.06763 -2.89865)
(26.6725 -1.06763 -2.89861)
(26.6778 -1.0664 -2.78856)
(26.6778 -1.0664 -2.78846)
(26.683 -1.06516 -2.67872)
(26.683 -1.06516 -2.6787)
(26.6883 -1.06393 -2.56973)
(26.6883 -1.06393 -2.56957)
(26.6935 -1.0627 -2.46024)
(26.6935 -1.0627 -2.46007)
(26.6988 -1.06146 -2.35049)
(26.6988 -1.06146 -2.3504)
(26.7041 -1.06023 -2.23992)
(26.7041 -1.06023 -2.23983)
(26.7094 -1.059 -2.12853)
(26.7094 -1.059 -2.12846)
(26.7148 -1.05775 -2.01515)
(26.7148 -1.05775 -2.01507)
(26.7204 -1.0565 -1.90027)
(26.7204 -1.0565 -1.90025)
(26.7258 -1.05525 -1.84142)
(26.7258 -1.05527 -1.8245)
(26.7311 -1.05395 -1.90012)
(26.7311 -1.05395 -1.90478)
(26.7364 -1.05261 -2.03587)
(26.7364 -1.05261 -2.03604)
(26.7417 -1.05126 -2.17337)
(26.7417 -1.05126 -2.17337)
(26.7471 -1.0499 -2.31269)
(26.7471 -1.0499 -2.31276)
(26.7525 -1.04855 -2.45318)
(26.7525 -1.04855 -2.45335)
(26.758 -1.04708 -2.53192)
(26.758 -1.04708 -2.53197)
(26.7634 -1.0454 -2.48514)
(26.7634 -1.0454 -2.48507)
(26.7687 -1.04372 -2.43827)
(26.7687 -1.04372 -2.43823)
(26.7741 -1.04205 -2.39113)
(26.7741 -1.04205 -2.39112)
(26.7795 -1.04037 -2.34431)
(26.7795 -1.04037 -2.34429)
(26.7848 -1.0387 -2.29734)
(26.7848 -1.0387 -2.29729)
(26.7899 -1.03709 -2.25207)
(26.7899 -1.03709 -2.25202)
(26.7944 -1.03565 -2.2114)
(26.7944 -1.03565 -2.21129)
(26.8 -1.0339 -2.16239)
(26.8 -1.0339 -2.16234)
(26.8082 -1.03146 -2.07832)
(26.8082 -1.03146 -2.07818)
(26.8153 -1.02943 -2.0316)
(26.8153 -1.02943 -2.03158)
(26.8207 -1.02788 -1.99614)
(26.8207 -1.02788 -1.99616)
(26.8268 -1.02634 -2.06288)
(26.8268 -1.02634 -2.06291)
(26.8335 -1.02465 -2.13588)
(26.8335 -1.02465 -2.1359)
(26.8406 -1.02286 -2.21328)
(26.8406 -1.02286 -2.21334)
(26.848 -1.021 -2.29352)
(26.848 -1.021 -2.29357)
(26.8555 -1.01913 -2.37443)
(26.8555 -1.01913 -2.37447)
(26.8628 -1.01696 -2.25046)
(26.8628 -1.01694 -2.23804)
(26.8698 -1.01476 -2.10753)
(26.8699 -1.01462 -2.23405)
(26.8766 -1.01263 -2.02409)
(26.8766 -1.01241 -2.27566)
(26.8828 -1.01045 -2.21123)
(26.8828 -1.01045 -2.21174)
(26.8884 -1.0085 -2.37929)
(26.8884 -1.0085 -2.37935)
(26.8951 -1.00617 -2.58115)
(26.8951 -1.00617 -2.58121)
(26.9029 -1.0035 -2.8154)
(26.9029 -1.0035 -2.81549)
(26.9095 -1.00127 -3.01503)
(26.9095 -1.00127 -3.01521)
(26.9152 -0.999411 -3.18388)
(26.9152 -0.999403 -3.17899)
(26.9205 -0.997628 -3.29377)
(26.9205 -0.997609 -3.28334)
(26.9261 -0.995697 -3.38119)
(26.9261 -0.995686 -3.37604)
(26.9313 -0.99391 -3.45596)
(26.9313 -0.9939 -3.45209)
(26.9356 -0.992401 -3.51524)
(26.9356 -0.992396 -3.51466)
(26.9399 -0.990918 -3.57294)
(26.9399 -0.990912 -3.57223)
(26.9441 -0.989444 -3.6301)
(26.9441 -0.989436 -3.62784)
(26.9484 -0.987962 -3.68757)
(26.9484 -0.987958 -3.68312)
(26.9527 -0.986465 -3.73481)
(26.9527 -0.986462 -3.7349)
(26.9571 -0.984894 -3.75569)
(26.9571 -0.984908 -3.76782)
(26.9617 -0.983203 -3.73376)
(26.9616 -0.983182 -3.71687)
(26.9663 -0.981323 -3.61078)
(26.9663 -0.98132 -3.61068)
(26.9709 -0.979494 -3.48375)
(26.9709 -0.979492 -3.48368)
(26.975 -0.977838 -3.36818)
(26.975 -0.977838 -3.36808)
(26.9791 -0.976229 -3.25529)
(26.9791 -0.976229 -3.2553)
(26.9832 -0.974579 -3.13911)
(26.9832 -0.974577 -3.139)
(26.9875 -0.972891 -3.01988)
(26.9875 -0.972889 -3.01976)
(26.9919 -0.971172 -2.89828)
(26.9919 -0.971169 -2.89813)
(26.9963 -0.969428 -2.775)
(26.9963 -0.969427 -2.77488)
(27.0008 -0.967663 -2.65003)
(27.0008 -0.96766 -2.64984)
(27.0053 -0.965888 -2.52425)
(27.0053 -0.965887 -2.52419)
(27.0099 -0.964119 -2.39883)
(27.0099 -0.964117 -2.39872)
(27.0144 -0.962346 -2.27916)
(27.0144 -0.962346 -2.27671)
(27.0188 -0.960585 -2.16471)
(27.0188 -0.960585 -2.16468)
(27.0232 -0.95865 -2.31178)
(27.0232 -0.95865 -2.31178)
)
;
    }
    suctionOutlet
    {
        type            inletOutlet;
        inletValue      uniform (0 0 0);
        value           uniform (0 0 0);
    }
    pressureOutlet
    {
        type            inletOutlet;
        inletValue      uniform (0 0 0);
        value           uniform (0 0 0);
    }
    front
    {
        type            empty;
    }
    back
    {
        type            empty;
    }
}


// ************************************************************************* //
