/*--------------------------------*- C++ -*----------------------------------*\
| =========                 |                                                 |
| \\      /  F ield         | OpenFOAM: The Open Source CFD Toolbox           |
|  \\    /   O peration     | Version:  1.6                                   |
|   \\  /    A nd           | Web:      http://www.OpenFOAM.org               |
|    \\/     M anipulation  |                                                 |
\*---------------------------------------------------------------------------*/
FoamFile
{
    version     2.0;
    format      ascii;
    class       volVectorField;
    object      U;
}
// * * * * * * * * * * * * * * * * * * * * * * * * * * * * * * * * * * * * * //

dimensions      [0 1 -1 0 0 0 0];

internalField   uniform (1 0 0);

boundaryField
{
    outlet      
    {
        type            zeroGradient;
    }

    inlet      
    {
	type fixedValue;
	value nonuniform List<vector>
	220
(
(0.0060866 7.6365e-07 0)
(0.01836 6.9487e-06 0)
(0.030833 1.9599e-05 0)
(0.043511 3.903e-05 0)
(0.056397 6.5569e-05 0)
(0.069492 9.9555e-05 0)
(0.082799 0.00014134 0)
(0.096322 0.00019128 0)
(0.11006 0.00024975 0)
(0.12402 0.00031714 0)
(0.13821 0.00039385 0)
(0.15261 0.00048026 0)
(0.16724 0.00057681 0)
(0.1821 0.00068391 0)
(0.19718 0.000802 0)
(0.21249 0.0009315 0)
(0.22803 0.0010729 0)
(0.24379 0.0012266 0)
(0.25977 0.001393 0)
(0.27598 0.0015726 0)
(0.2924 0.0017659 0)
(0.30904 0.0019733 0)
(0.32588 0.0021951 0)
(0.34293 0.0024319 0)
(0.36018 0.002684 0)
(0.37762 0.0029518 0)
(0.39523 0.0032357 0)
(0.41302 0.0035358 0)
(0.43096 0.0038526 0)
(0.44905 0.0041863 0)
(0.46726 0.0045369 0)
(0.48558 0.0049047 0)
(0.504 0.0052896 0)
(0.52249 0.0056917 0)
(0.54104 0.0061109 0)
(0.55961 0.0065468 0)
(0.57818 0.0069992 0)
(0.59672 0.0074677 0)
(0.61521 0.0079518 0)
(0.63362 0.0084507 0)
(0.6519 0.0089636 0)
(0.67003 0.0094897 0)
(0.68797 0.010028 0)
(0.70568 0.010577 0)
(0.72312 0.011135 0)
(0.74026 0.011701 0)
(0.75706 0.012273 0)
(0.77347 0.01285 0)
(0.78946 0.013428 0)
(0.80499 0.014008 0)
(0.82002 0.014585 0)
(0.83451 0.015158 0)
(0.84844 0.015725 0)
(0.86177 0.016283 0)
(0.87447 0.01683 0)
(0.88652 0.017363 0)
(0.89791 0.017881 0)
(0.90861 0.018381 0)
(0.91861 0.018861 0)
(0.92792 0.01932 0)
(0.93652 0.019755 0)
(0.94444 0.020166 0)
(0.95167 0.020551 0)
(0.95823 0.02091 0)
(0.96415 0.021242 0)
(0.96944 0.021546 0)
(0.97415 0.021823 0)
(0.9783 0.022074 0)
(0.98193 0.022299 0)
(0.98508 0.022498 0)
(0.98779 0.022674 0)
(0.9901 0.022828 0)
(0.99205 0.02296 0)
(0.99368 0.023074 0)
(0.99502 0.02317 0)
(0.99612 0.02325 0)
(0.99702 0.023317 0)
(0.99773 0.023371 0)
(0.99829 0.023415 0)
(0.99873 0.02345 0)
(0.99907 0.023478 0)
(0.99933 0.0235 0)
(0.99952 0.023516 0)
(0.99966 0.023529 0)
(0.99977 0.023538 0)
(0.99984 0.023545 0)
(0.99989 0.02355 0)
(0.99993 0.023553 0)
(0.99995 0.023555 0)
(0.99997 0.023557 0)
(0.99998 0.023558 0)
(0.99999 0.023559 0)
(0.99999 0.023559 0)
(1 0.02356 0)
(1 0.02356 0)
(1 0.02356 0)
(1 0.02356 0)
(1 0.02356 0)
(1 0.02356 0)
(1 0.02356 0)
(1 0.02356 0)
(1 0.02356 0)
(1 0.02356 0)
(1 0.02356 0)
(1 0.02356 0)
(1 0.02356 0)
(1 0.02356 0)
(1 0.02356 0)
(1 0.02356 0)
(1 0.02356 0)
(1 0.02356 0)
(1 0.02356 0)
(1 0.02356 0)
(1 0.02356 0)
(1 0.02356 0)
(1 0.02356 0)
(1 0.02356 0)
(1 0.02356 0)
(1 0.02356 0)
(1 0.02356 0)
(1 0.02356 0)
(1 0.02356 0)
(1 0.02356 0)
(1 0.02356 0)
(1 0.02356 0)
(1 0.02356 0)
(1 0.02356 0)
(1 0.02356 0)
(1 0.02356 0)
(1 0.02356 0)
(1 0.02356 0)
(1 0.02356 0)
(1 0.02356 0)
(1 0.02356 0)
(1 0.02356 0)
(1 0.02356 0)
(1 0.02356 0)
(1 0.02356 0)
(1 0.02356 0)
(1 0.02356 0)
(1 0.02356 0)
(1 0.02356 0)
(1 0.02356 0)
(1 0.02356 0)
(1 0.02356 0)
(1 0.02356 0)
(1 0.02356 0)
(1 0.02356 0)
(1 0.02356 0)
(1 0.02356 0)
(1 0.02356 0)
(1 0.02356 0)
(1 0.02356 0)
(1 0.02356 0)
(1 0.02356 0)
(1 0.02356 0)
(1 0.02356 0)
(1 0.02356 0)
(1 0.02356 0)
(1 0.02356 0)
(1 0.02356 0)
(1 0.02356 0)
(1 0.02356 0)
(1 0.02356 0)
(1 0.02356 0)
(1 0.02356 0)
(1 0.02356 0)
(1 0.02356 0)
(1 0.02356 0)
(1 0.02356 0)
(1 0.02356 0)
(1 0.02356 0)
(1 0.02356 0)
(1 0.02356 0)
(1 0.02356 0)
(1 0.02356 0)
(1 0.02356 0)
(1 0.02356 0)
(1 0.02356 0)
(1 0.02356 0)
(1 0.02356 0)
(1 0.02356 0)
(1 0.02356 0)
(1 0.02356 0)
(1 0.02356 0)
(1 0.02356 0)
(1 0.02356 0)
(1 0.02356 0)
(1 0.02356 0)
(1 0.02356 0)
(1 0.02356 0)
(1 0.02356 0)
(1 0.02356 0)
(1 0.02356 0)
(1 0.02356 0)
(1 0.02356 0)
(1 0.02356 0)
(1 0.02356 0)
(1 0.02356 0)
(1 0.02356 0)
(1 0.02356 0)
(1 0.02356 0)
(1 0.02356 0)
(1 0.02356 0)
(1 0.02356 0)
(1 0.02356 0)
(1 0.02356 0)
(1 0.02356 0)
(1 0.02356 0)
(1 0.02356 0)
(1 0.02356 0)
(1 0.02356 0)
(1 0.02356 0)
(1 0.02356 0)
(1 0.02356 0)
(1 0.02356 0)
(1 0.02356 0)
(1 0.02356 0)
(1 0.02356 0)
(1 0.02356 0)
);
    }

    plate      
    {
        type            fixedValue;
        value           uniform (0 0 0);
    }


    top
    {
	type fixedValue;
	value nonuniform List<vector>
500
(
(1 0.023322 0)
(1 0.02286 0)
(1 0.022425 0)
(1 0.022013 0)
(1 0.021622 0)
(1 0.021251 0)
(1 0.020898 0)
(1 0.020561 0)
(1 0.02024 0)
(1 0.019933 0)
(1 0.019639 0)
(1 0.019357 0)
(1 0.019087 0)
(1 0.018827 0)
(1 0.018578 0)
(1 0.018338 0)
(1 0.018106 0)
(1 0.017883 0)
(1 0.017667 0)
(1 0.017459 0)
(1 0.017258 0)
(1 0.017063 0)
(1 0.016875 0)
(1 0.016692 0)
(1 0.016515 0)
(1 0.016343 0)
(1 0.016176 0)
(1 0.016014 0)
(1 0.015857 0)
(1 0.015704 0)
(1 0.015555 0)
(1 0.01541 0)
(1 0.015269 0)
(1 0.015131 0)
(1 0.014997 0)
(1 0.014866 0)
(1 0.014739 0)
(1 0.014614 0)
(1 0.014492 0)
(1 0.014374 0)
(1 0.014258 0)
(1 0.014144 0)
(1 0.014033 0)
(1 0.013925 0)
(1 0.013819 0)
(1 0.013715 0)
(1 0.013613 0)
(1 0.013513 0)
(1 0.013416 0)
(1 0.01332 0)
(1 0.013226 0)
(1 0.013134 0)
(1 0.013044 0)
(1 0.012955 0)
(1 0.012869 0)
(1 0.012783 0)
(1 0.0127 0)
(1 0.012617 0)
(1 0.012537 0)
(1 0.012457 0)
(1 0.01238 0)
(1 0.012303 0)
(1 0.012228 0)
(1 0.012154 0)
(1 0.012081 0)
(1 0.012009 0)
(1 0.011939 0)
(1 0.01187 0)
(1 0.011801 0)
(1 0.011734 0)
(1 0.011668 0)
(1 0.011603 0)
(1 0.011539 0)
(1 0.011476 0)
(1 0.011414 0)
(1 0.011353 0)
(1 0.011292 0)
(1 0.011233 0)
(1 0.011174 0)
(1 0.011116 0)
(1 0.011059 0)
(1 0.011003 0)
(1 0.010948 0)
(1 0.010893 0)
(1 0.010839 0)
(1 0.010786 0)
(1 0.010733 0)
(1 0.010681 0)
(1 0.01063 0)
(1 0.01058 0)
(1 0.01053 0)
(1 0.010481 0)
(1 0.010432 0)
(1 0.010384 0)
(1 0.010337 0)
(1 0.01029 0)
(1 0.010243 0)
(1 0.010198 0)
(1 0.010153 0)
(1 0.010108 0)
(1 0.010064 0)
(1 0.01002 0)
(1 0.0099771 0)
(1 0.0099344 0)
(1 0.0098923 0)
(1 0.0098507 0)
(1 0.0098095 0)
(1 0.0097688 0)
(1 0.0097285 0)
(1 0.0096886 0)
(1 0.0096492 0)
(1 0.0096102 0)
(1 0.0095716 0)
(1 0.0095335 0)
(1 0.0094957 0)
(1 0.0094584 0)
(1 0.0094214 0)
(1 0.0093848 0)
(1 0.0093485 0)
(1 0.0093127 0)
(1 0.0092772 0)
(1 0.009242 0)
(1 0.0092072 0)
(1 0.0091727 0)
(1 0.0091386 0)
(1 0.0091048 0)
(1 0.0090714 0)
(1 0.0090382 0)
(1 0.0090054 0)
(1 0.0089729 0)
(1 0.0089407 0)
(1 0.0089088 0)
(1 0.0088771 0)
(1 0.0088458 0)
(1 0.0088148 0)
(1 0.008784 0)
(1 0.0087535 0)
(1 0.0087233 0)
(1 0.0086934 0)
(1 0.0086637 0)
(1 0.0086343 0)
(1 0.0086052 0)
(1 0.0085763 0)
(1 0.0085476 0)
(1 0.0085192 0)
(1 0.008491 0)
(1 0.0084631 0)
(1 0.0084354 0)
(1 0.008408 0)
(1 0.0083808 0)
(1 0.0083538 0)
(1 0.008327 0)
(1 0.0083004 0)
(1 0.0082741 0)
(1 0.008248 0)
(1 0.008222 0)
(1 0.0081963 0)
(1 0.0081708 0)
(1 0.0081455 0)
(1 0.0081204 0)
(1 0.0080955 0)
(1 0.0080708 0)
(1 0.0080462 0)
(1 0.0080219 0)
(1 0.0079977 0)
(1 0.0079738 0)
(1 0.00795 0)
(1 0.0079264 0)
(1 0.0079029 0)
(1 0.0078797 0)
(1 0.0078566 0)
(1 0.0078337 0)
(1 0.0078109 0)
(1 0.0077884 0)
(1 0.0077659 0)
(1 0.0077437 0)
(1 0.0077216 0)
(1 0.0076997 0)
(1 0.0076779 0)
(1 0.0076562 0)
(1 0.0076348 0)
(1 0.0076134 0)
(1 0.0075923 0)
(1 0.0075712 0)
(1 0.0075504 0)
(1 0.0075296 0)
(1 0.007509 0)
(1 0.0074885 0)
(1 0.0074682 0)
(1 0.007448 0)
(1 0.007428 0)
(1 0.0074081 0)
(1 0.0073883 0)
(1 0.0073686 0)
(1 0.0073491 0)
(1 0.0073297 0)
(1 0.0073104 0)
(1 0.0072913 0)
(1 0.0072723 0)
(1 0.0072534 0)
(1 0.0072346 0)
(1 0.0072159 0)
(1 0.0071974 0)
(1 0.0071789 0)
(1 0.0071606 0)
(1 0.0071424 0)
(1 0.0071243 0)
(1 0.0071064 0)
(1 0.0070885 0)
(1 0.0070708 0)
(1 0.0070531 0)
(1 0.0070356 0)
(1 0.0070182 0)
(1 0.0070008 0)
(1 0.0069836 0)
(1 0.0069665 0)
(1 0.0069495 0)
(1 0.0069326 0)
(1 0.0069157 0)
(1 0.006899 0)
(1 0.0068824 0)
(1 0.0068659 0)
(1 0.0068494 0)
(1 0.0068331 0)
(1 0.0068169 0)
(1 0.0068007 0)
(1 0.0067847 0)
(1 0.0067687 0)
(1 0.0067528 0)
(1 0.006737 0)
(1 0.0067213 0)
(1 0.0067057 0)
(1 0.0066902 0)
(1 0.0066748 0)
(1 0.0066594 0)
(1 0.0066442 0)
(1 0.006629 0)
(1 0.0066139 0)
(1 0.0065989 0)
(1 0.0065839 0)
(1 0.0065691 0)
(1 0.0065543 0)
(1 0.0065396 0)
(1 0.006525 0)
(1 0.0065104 0)
(1 0.006496 0)
(1 0.0064816 0)
(1 0.0064673 0)
(1 0.006453 0)
(1 0.0064389 0)
(1 0.0064248 0)
(1 0.0064107 0)
(1 0.0063968 0)
(1 0.0063829 0)
(1 0.0063691 0)
(1 0.0063554 0)
(1 0.0063417 0)
(1 0.0063281 0)
(1 0.0063146 0)
(1 0.0063011 0)
(1 0.0062877 0)
(1 0.0062744 0)
(1 0.0062612 0)
(1 0.006248 0)
(1 0.0062348 0)
(1 0.0062218 0)
(1 0.0062088 0)
(1 0.0061958 0)
(1 0.006183 0)
(1 0.0061701 0)
(1 0.0061574 0)
(1 0.0061447 0)
(1 0.0061321 0)
(1 0.0061195 0)
(1 0.006107 0)
(1 0.0060945 0)
(1 0.0060821 0)
(1 0.0060698 0)
(1 0.0060575 0)
(1 0.0060453 0)
(1 0.0060332 0)
(1 0.006021 0)
(1 0.006009 0)
(1 0.005997 0)
(1 0.0059851 0)
(1 0.0059732 0)
(1 0.0059614 0)
(1 0.0059496 0)
(1 0.0059378 0)
(1 0.0059262 0)
(1 0.0059146 0)
(1 0.005903 0)
(1 0.0058915 0)
(1 0.00588 0)
(1 0.0058686 0)
(1 0.0058572 0)
(1 0.0058459 0)
(1 0.0058347 0)
(1 0.0058235 0)
(1 0.0058123 0)
(1 0.0058012 0)
(1 0.0057901 0)
(1 0.0057791 0)
(1 0.0057681 0)
(1 0.0057572 0)
(1 0.0057463 0)
(1 0.0057355 0)
(1 0.0057247 0)
(1 0.005714 0)
(1 0.0057033 0)
(1 0.0056926 0)
(1 0.005682 0)
(1 0.0056714 0)
(1 0.0056609 0)
(1 0.0056505 0)
(1 0.00564 0)
(1 0.0056296 0)
(1 0.0056193 0)
(1 0.005609 0)
(1 0.0055987 0)
(1 0.0055885 0)
(1 0.0055784 0)
(1 0.0055682 0)
(1 0.0055581 0)
(1 0.0055481 0)
(1 0.0055381 0)
(1 0.0055281 0)
(1 0.0055182 0)
(1 0.0055083 0)
(1 0.0054984 0)
(1 0.0054886 0)
(1 0.0054788 0)
(1 0.0054691 0)
(1 0.0054594 0)
(1 0.0054498 0)
(1 0.0054401 0)
(1 0.0054305 0)
(1 0.005421 0)
(1 0.0054115 0)
(1 0.005402 0)
(1 0.0053926 0)
(1 0.0053832 0)
(1 0.0053738 0)
(1 0.0053645 0)
(1 0.0053552 0)
(1 0.0053459 0)
(1 0.0053367 0)
(1 0.0053275 0)
(1 0.0053184 0)
(1 0.0053093 0)
(1 0.0053002 0)
(1 0.0052911 0)
(1 0.0052821 0)
(1 0.0052731 0)
(1 0.0052642 0)
(1 0.0052553 0)
(1 0.0052464 0)
(1 0.0052375 0)
(1 0.0052287 0)
(1 0.0052199 0)
(1 0.0052112 0)
(1 0.0052024 0)
(1 0.0051938 0)
(1 0.0051851 0)
(1 0.0051765 0)
(1 0.0051679 0)
(1 0.0051593 0)
(1 0.0051508 0)
(1 0.0051423 0)
(1 0.0051338 0)
(1 0.0051253 0)
(1 0.0051169 0)
(1 0.0051085 0)
(1 0.0051002 0)
(1 0.0050919 0)
(1 0.0050836 0)
(1 0.0050753 0)
(1 0.0050671 0)
(1 0.0050588 0)
(1 0.0050507 0)
(1 0.0050425 0)
(1 0.0050344 0)
(1 0.0050263 0)
(1 0.0050182 0)
(1 0.0050102 0)
(1 0.0050022 0)
(1 0.0049942 0)
(1 0.0049862 0)
(1 0.0049783 0)
(1 0.0049704 0)
(1 0.0049625 0)
(1 0.0049546 0)
(1 0.0049468 0)
(1 0.004939 0)
(1 0.0049312 0)
(1 0.0049235 0)
(1 0.0049158 0)
(1 0.0049081 0)
(1 0.0049004 0)
(1 0.0048927 0)
(1 0.0048851 0)
(1 0.0048775 0)
(1 0.0048699 0)
(1 0.0048624 0)
(1 0.0048549 0)
(1 0.0048474 0)
(1 0.0048399 0)
(1 0.0048324 0)
(1 0.004825 0)
(1 0.0048176 0)
(1 0.0048102 0)
(1 0.0048029 0)
(1 0.0047956 0)
(1 0.0047882 0)
(1 0.004781 0)
(1 0.0047737 0)
(1 0.0047665 0)
(1 0.0047592 0)
(1 0.004752 0)
(1 0.0047449 0)
(1 0.0047377 0)
(1 0.0047306 0)
(1 0.0047235 0)
(1 0.0047164 0)
(1 0.0047094 0)
(1 0.0047023 0)
(1 0.0046953 0)
(1 0.0046883 0)
(1 0.0046813 0)
(1 0.0046744 0)
(1 0.0046675 0)
(1 0.0046605 0)
(1 0.0046537 0)
(1 0.0046468 0)
(1 0.0046399 0)
(1 0.0046331 0)
(1 0.0046263 0)
(1 0.0046195 0)
(1 0.0046128 0)
(1 0.004606 0)
(1 0.0045993 0)
(1 0.0045926 0)
(1 0.0045859 0)
(1 0.0045792 0)
(1 0.0045726 0)
(1 0.004566 0)
(1 0.0045594 0)
(1 0.0045528 0)
(1 0.0045462 0)
(1 0.0045397 0)
(1 0.0045331 0)
(1 0.0045266 0)
(1 0.0045201 0)
(1 0.0045137 0)
(1 0.0045072 0)
(1 0.0045008 0)
(1 0.0044944 0)
(1 0.004488 0)
(1 0.0044816 0)
(1 0.0044752 0)
(1 0.0044689 0)
(1 0.0044626 0)
(1 0.0044563 0)
(1 0.00445 0)
(1 0.0044437 0)
(1 0.0044375 0)
(1 0.0044312 0)
(1 0.004425 0)
(1 0.0044188 0)
(1 0.0044126 0)
(1 0.0044065 0)
(1 0.0044003 0)
(1 0.0043942 0)
(1 0.0043881 0)
(1 0.004382 0)
(1 0.0043759 0)
(1 0.0043698 0)
(1 0.0043638 0)
(1 0.0043578 0)
(1 0.0043518 0)
(1 0.0043458 0)
(1 0.0043398 0)
(1 0.0043338 0)
(1 0.0043279 0)
(1 0.0043219 0)
(1 0.004316 0)
(1 0.0043101 0)
(1 0.0043042 0)
(1 0.0042984 0)
(1 0.0042925 0)
(1 0.0042867 0)
(1 0.0042809 0)
(1 0.0042751 0)
(1 0.0042693 0)
(1 0.0042635 0)
(1 0.0042578 0)
(1 0.004252 0)
(1 0.0042463 0)
(1 0.0042406 0)
(1 0.0042349 0)
);
    }


    frontAndBack    
    {
        type            empty;
    }
}

// ************************************************************************* //
